#------------------------------------------------------------------------------
#$Date: 2018-09-27 07:13:35 +0300 (Thu, 27 Sep 2018) $
#$Revision: 211196 $
#$URL: file:///home/coder/svn-repositories/cod/cif/1/52/37/1523760.cif $
#------------------------------------------------------------------------------
#
# This file is available in the Crystallography Open Database (COD),
# http://www.crystallography.net/
#
# All data on this site have been placed in the public domain by the
# contributors.
#
data_1523760
loop_
_publ_author_name
'Guerin, R.'
'Guivarc'h, A.'
_publ_section_title
;
 Metallurgical study of Ni/Ga As contacts. I. Experimental determination
 of the solid portion of the Ni-Ga-As ternary phase diagram
;
_journal_name_full               'Journal of Applied Physics'
_journal_page_first              2122
_journal_page_last               2128
_journal_volume                  66
_journal_year                    1989
_chemical_formula_sum            'Ga Ni'
_space_group_IT_number           221
_symmetry_space_group_name_Hall  '-P 4 2 3'
_symmetry_space_group_name_H-M   'P m -3 m'
_cell_angle_alpha                90
_cell_angle_beta                 90
_cell_angle_gamma                90
_cell_formula_units_Z            1
_cell_length_a                   2.886
_cell_length_b                   2.886
_cell_length_c                   2.886
_cell_volume                     24.037
_citation_journal_id_ASTM        JAPIAU
_cod_data_source_file            Guerin_JAPIAU_1989_255.cif
_cod_data_source_block           Ga1Ni1
_cod_original_cell_volume        24.03748
_cod_original_formula_sum        'Ga1 Ni1'
_cod_database_code               1523760
loop_
_symmetry_equiv_pos_as_xyz
x,y,z
-y,x,z
-x,-y,z
y,-x,z
x,-y,-z
y,x,-z
-x,y,-z
-y,-x,-z
z,x,y
-x,z,y
-z,-x,y
x,-z,y
z,-x,-y
x,z,-y
-z,x,-y
-x,-z,-y
y,z,x
y,-z,-x
z,y,-x
-y,z,-x
-z,-y,-x
-y,-z,x
z,-y,x
-z,y,x
-x,-y,-z
y,-x,-z
x,y,-z
-y,x,-z
-x,y,z
-y,-x,z
x,-y,z
y,x,z
-z,-x,-y
x,-z,-y
z,x,-y
-x,z,-y
-z,x,y
-x,-z,y
z,-x,y
x,z,y
-y,-z,-x
-y,z,x
-z,-y,x
y,-z,x
z,y,x
y,z,-x
-z,y,-x
z,-y,-x
loop_
_atom_site_label
_atom_site_type_symbol
_atom_site_fract_x
_atom_site_fract_y
_atom_site_fract_z
_atom_site_occupancy
_atom_site_U_iso_or_equiv
Ni1 Ni 0.5 0.5 0.5 1 0.0
Ga1 Ga 0 0 0 1 0.0
